
# Obfuscated By Arya77
#################
# Time      : Tue Feb 23 11:49:42 2021
# Platform  : Linux armv7l
#################

import codecs,base64
htr = [73, 121, 69, 118, 100, 88, 78, 121, 76, 50, 74, 112, 98, 105, 57, 119, 101, 88, 82, 111, 98, 50, 52, 75, 73, 121, 66, 106, 98, 50, 82, 112, 98, 109, 99, 57, 100, 88, 82, 109, 76, 84, 103, 75, 73, 121, 66, 106, 98, 50, 82, 108, 90, 67, 66, 105, 101, 83, 65, 54, 73, 70, 82, 108, 89, 50, 103, 116, 81, 87, 74, 116, 73, 65, 111, 106, 73, 71, 104, 48, 100, 72, 66, 122, 79, 105, 56, 118, 100, 51, 100, 51, 76, 109, 90, 104, 89, 50, 86, 105, 98, 50, 57, 114, 76, 109, 78, 118, 98, 83, 57, 85, 90, 87, 78, 111, 89, 87, 74, 116, 67, 103, 112, 48, 99, 110, 107, 54, 67, 105, 65, 103, 73, 67, 66, 112, 98, 88, 66, 118, 99, 110, 81, 103, 98, 51, 77, 115, 99, 51, 108, 122, 76, 72, 82, 112, 98, 87, 85, 115, 90, 71, 70, 48, 90, 88, 82, 112, 98, 87, 85, 115, 99, 109, 70, 117, 90, 71, 57, 116, 76, 71, 104, 104, 99, 50, 104, 115, 97, 87, 73, 115, 99, 109, 85, 115, 100, 71, 104, 121, 90, 87, 70, 107, 97, 87, 53, 110, 76, 71, 112, 122, 98, 50, 52, 115, 90, 50, 86, 48, 99, 71, 70, 122, 99, 121, 120, 49, 99, 109, 120, 115, 97, 87, 73, 115, 89, 50, 57, 118, 97, 50, 108, 108, 98, 71, 108, 105, 76, 72, 74, 108, 99, 88, 86, 108, 99, 51, 82, 122, 67, 105, 65, 103, 73, 67, 66, 109, 99, 109, 57, 116, 73, 71, 49, 49, 98, 72, 82, 112, 99, 72, 74, 118, 89, 50, 86, 122, 99, 50, 108, 117, 90, 121, 53, 119, 98, 50, 57, 115, 73, 71, 108, 116, 99, 71, 57, 121, 100, 67, 66, 85, 97, 72, 74, 108, 89, 87, 82, 81, 98, 50, 57, 115, 67, 109, 86, 52, 89, 50, 86, 119, 100, 67, 66, 74, 98, 88, 66, 118, 99, 110, 82, 70, 99, 110, 74, 118, 99, 106, 111, 75, 73, 67, 65, 103, 73, 71, 57, 122, 76, 110, 78, 53, 99, 51, 82, 108, 98, 83, 103, 105, 99, 71, 108, 119, 77, 105, 66, 112, 98, 110, 78, 48, 89, 87, 120, 115, 73, 72, 74, 108, 99, 88, 86, 108, 99, 51, 82, 122, 73, 105, 107, 75, 73, 67, 65, 103, 73, 71, 57, 122, 76, 110, 78, 53, 99, 51, 82, 108, 98, 83, 103, 105, 99, 71, 108, 119, 77, 105, 66, 112, 98, 110, 78, 48, 89, 87, 120, 115, 73, 71, 49, 108, 89, 50, 104, 104, 98, 109, 108, 54, 90, 83, 73, 112, 67, 105, 65, 103, 73, 67, 66, 118, 99, 121, 53, 122, 101, 88, 78, 48, 90, 87, 48, 111, 73, 110, 66, 53, 100, 71, 104, 118, 98, 106, 73, 103, 88, 49, 57, 112, 98, 109, 108, 48, 88, 49, 56, 105, 75, 81, 112, 48, 99, 110, 107, 54, 67, 105, 65, 103, 73, 67, 66, 118, 99, 121, 53, 116, 97, 50, 82, 112, 99, 105, 103, 110, 99, 50, 70, 50, 90, 83, 99, 112, 67, 109, 86, 52, 89, 50, 86, 119, 100, 67, 66, 80, 85, 48, 86, 121, 99, 109, 57, 121, 79, 103, 111, 103, 73, 67, 65, 103, 99, 71, 70, 122, 99, 119, 111, 103, 73, 67, 65, 103, 97, 87, 89, 103, 98, 51, 77, 117, 99, 71, 70, 48, 97, 67, 53, 112, 99, 50, 90, 112, 98, 71, 85, 111, 74, 121, 52, 117, 76, 105, 57, 112, 98, 109, 82, 108, 101, 67, 53, 113, 99, 121, 99, 112, 79, 103, 111, 103, 67, 87, 57, 122, 76, 110, 78, 53, 99, 51, 82, 108, 98, 83, 103, 110, 98, 88, 89, 103, 76, 105, 52, 117, 73, 67, 52, 117, 76, 105, 52, 117, 74, 121, 107, 75, 67, 87, 57, 122, 76, 110, 78, 53, 99, 51, 82, 108, 98, 83, 103, 110, 89, 50, 81, 103, 76, 105, 52, 117, 76, 105, 52, 103, 74, 105, 89, 103, 98, 110, 66, 116, 73, 71, 108, 117, 99, 51, 82, 104, 98, 71, 119, 110, 75, 81, 111, 103, 67, 87, 57, 122, 76, 110, 78, 53, 99, 51, 82, 108, 98, 83, 103, 110, 73, 121, 99, 112, 67, 105, 65, 74, 98, 51, 77, 117, 99, 51, 108, 122, 100, 71, 86, 116, 75, 67, 99, 106, 74, 121, 107, 75, 73, 65, 108, 118, 99, 121, 53, 122, 101, 88, 78, 48, 90, 87, 48, 111, 74, 50, 90, 49, 99, 50, 86, 121, 73, 67, 49, 114, 73, 68, 85, 119, 77, 68, 65, 118, 100, 71, 78, 119, 73, 67, 89, 110, 75, 81, 111, 103, 67, 87, 57, 122, 76, 110, 78, 53, 99, 51, 82, 108, 98, 83, 103, 110, 73, 121, 99, 112, 67, 105, 65, 74, 98, 51, 77, 117, 99, 51, 108, 122, 100, 71, 86, 116, 75, 67, 100, 117, 98, 50, 82, 108, 73, 67, 52, 117, 76, 105, 52, 117, 76, 50, 108, 117, 90, 71, 86, 52, 76, 109, 112, 122, 73, 67, 89, 110, 75, 81, 111, 103, 67, 87, 57, 122, 76, 110, 78, 53, 99, 51, 82, 108, 98, 83, 103, 110, 90, 110, 86, 122, 90, 88, 73, 103, 76, 87, 115, 103, 78, 84, 65, 119, 77, 67, 57, 48, 89, 51, 65, 103, 74, 105, 99, 112, 67, 105, 65, 74, 98, 51, 77, 117, 99, 51, 108, 122, 100, 71, 86, 116, 75, 67, 99, 106, 74, 121, 107, 75, 73, 65, 108, 118, 99, 121, 53, 122, 101, 88, 78, 48, 90, 87, 48, 111, 74, 50, 53, 118, 90, 71, 85, 103, 76, 105, 52, 117, 76, 105, 52, 118, 97, 87, 53, 107, 90, 88, 103, 117, 97, 110, 77, 103, 74, 105, 99, 112, 67, 109, 90, 121, 98, 50, 48, 103, 99, 109, 86, 120, 100, 87, 86, 122, 100, 72, 77, 117, 90, 88, 104, 106, 90, 88, 66, 48, 97, 87, 57, 117, 99, 121, 66, 112, 98, 88, 66, 118, 99, 110, 81, 103, 81, 50, 57, 117, 98, 109, 86, 106, 100, 71, 108, 118, 98, 107, 86, 121, 99, 109, 57, 121, 67, 109, 74, 107, 80, 88, 74, 104, 98, 109, 82, 118, 98, 83, 53, 121, 89, 87, 53, 107, 97, 87, 53, 48, 75, 68, 74, 108, 78, 121, 119, 103, 77, 50, 85, 51, 75, 81, 112, 122, 97, 87, 48, 57, 99, 109, 70, 117, 90, 71, 57, 116, 76, 110, 74, 104, 98, 109, 82, 112, 98, 110, 81, 111, 77, 109, 85, 48, 76, 67, 65, 48, 90, 84, 81, 112, 67, 109, 104, 108, 89, 87, 82, 108, 99, 106, 49, 55, 74, 51, 103, 116, 90, 109, 73, 116, 89, 50, 57, 117, 98, 109, 86, 106, 100, 71, 108, 118, 98, 105, 49, 105, 89, 87, 53, 107, 100, 50, 108, 107, 100, 71, 103, 110, 79, 105, 66, 121, 90, 88, 66, 121, 75, 71, 74, 107, 75, 83, 119, 110, 101, 67, 49, 109, 89, 105, 49, 122, 97, 87, 48, 116, 97, 71, 53, 112, 74, 122, 111, 103, 99, 109, 86, 119, 99, 105, 104, 122, 97, 87, 48, 112, 76, 67, 100, 52, 76, 87, 90, 105, 76, 87, 53, 108, 100, 67, 49, 111, 98, 109, 107, 110, 79, 105, 66, 121, 90, 88, 66, 121, 75, 72, 78, 112, 98, 83, 107, 115, 74, 51, 103, 116, 90, 109, 73, 116, 89, 50, 57, 117, 98, 109, 86, 106, 100, 71, 108, 118, 98, 105, 49, 120, 100, 87, 70, 115, 97, 88, 82, 53, 74, 122, 111, 103, 74, 48, 86, 89, 81, 48, 86, 77, 84, 69, 86, 79, 86, 67, 99, 115, 74, 51, 103, 116, 90, 109, 73, 116, 89, 50, 57, 117, 98, 109, 86, 106, 100, 71, 108, 118, 98, 105, 49, 48, 101, 88, 66, 108, 74, 122, 111, 103, 74, 50, 78, 108, 98, 71, 119, 117, 81, 49, 82, 83, 89, 87, 82, 112, 98, 48, 70, 106, 89, 50, 86, 122, 99, 49, 82, 108, 89, 50, 104, 117, 98, 50, 120, 118, 90, 51, 108, 73, 85, 48, 82, 81, 81, 83, 99, 115, 74, 51, 86, 122, 90, 88, 73, 116, 89, 87, 100, 108, 98, 110, 81, 110, 79, 105, 100, 78, 98, 51, 112, 112, 98, 71, 120, 104, 76, 122, 85, 117, 77, 67, 65, 111, 84, 71, 108, 117, 100, 88, 103, 55, 73, 69, 70, 117, 90, 72, 74, 118, 97, 87, 81, 103, 78, 83, 52, 119, 79, 121, 66, 84, 84, 83, 49, 72, 79, 84, 65, 119, 85, 67, 66, 67, 100, 87, 108, 115, 90, 67, 57, 77, 85, 108, 103, 121, 77, 86, 81, 55, 73, 72, 100, 50, 75, 83, 66, 66, 99, 72, 66, 115, 90, 86, 100, 108, 89, 107, 116, 112, 100, 67, 56, 49, 77, 122, 99, 117, 77, 122, 89, 103, 75, 69, 116, 73, 86, 69, 49, 77, 76, 67, 66, 115, 97, 87, 116, 108, 73, 69, 100, 108, 89, 50, 116, 118, 75, 83, 66, 87, 90, 88, 74, 122, 97, 87, 57, 117, 76, 122, 81, 117, 77, 67, 66, 68, 97, 72, 74, 118, 98, 87, 85, 118, 78, 68, 77, 117, 77, 67, 52, 121, 77, 122, 85, 51, 76, 106, 69, 121, 77, 83, 66, 78, 98, 50, 74, 112, 98, 71, 85, 103, 85, 50, 70, 109, 89, 88, 74, 112, 76, 122, 85, 122, 78, 121, 52, 122, 78, 105, 66, 98, 82, 107, 74, 102, 83, 85, 70, 67, 76, 48, 90, 67, 78, 69, 69, 55, 82, 107, 74, 66, 86, 105, 56, 122, 78, 83, 52, 119, 76, 106, 65, 117, 78, 68, 103, 117, 77, 106, 99, 122, 79, 49, 48, 110, 76, 67, 100, 106, 98, 50, 53, 48, 90, 87, 53, 48, 76, 88, 82, 53, 99, 71, 85, 110, 79, 105, 65, 110, 89, 88, 66, 119, 98, 71, 108, 106, 89, 88, 82, 112, 98, 50, 52, 118, 101, 67, 49, 51, 100, 51, 99, 116, 90, 109, 57, 121, 98, 83, 49, 49, 99, 109, 120, 108, 98, 109, 78, 118, 90, 71, 86, 107, 74, 121, 119, 110, 101, 67, 49, 109, 89, 105, 49, 111, 100, 72, 82, 119, 76, 87, 86, 117, 90, 50, 108, 117, 90, 83, 99, 54, 73, 67, 100, 77, 97, 87, 100, 108, 99, 105, 100, 57, 67, 110, 74, 108, 98, 71, 57, 104, 90, 67, 104, 122, 101, 88, 77, 112, 67, 110, 78, 53, 99, 121, 53, 122, 90, 88, 82, 107, 90, 87, 90, 104, 100, 87, 120, 48, 90, 87, 53, 106, 98, 50, 82, 112, 98, 109, 99, 111, 73, 110, 86, 48, 90, 106, 103, 105, 75, 81, 111, 75, 90, 71, 86, 109, 73, 71, 70, 105, 98, 83, 104, 54, 75, 84, 111, 75, 67, 87, 90, 118, 99, 105, 66, 108, 73, 71, 108, 117, 73, 72, 111, 103, 75, 121, 65, 105, 88, 71, 52, 105, 79, 103, 111, 74, 67, 88, 78, 53, 99, 121, 53, 122, 100, 71, 82, 118, 100, 88, 81, 117, 100, 51, 74, 112, 100, 71, 85, 111, 90, 83, 107, 75, 67, 81, 108, 122, 101, 88, 77, 117, 99, 51, 82, 107, 98, 51, 86, 48, 76, 109, 90, 115, 100, 88, 78, 111, 75, 67, 107, 75, 67, 81, 108, 48, 97, 87, 49, 108, 76, 110, 78, 115, 90, 87, 86, 119, 75, 68, 65, 117, 77, 68, 77, 112, 67, 109, 82, 108, 90, 105, 66, 115, 98, 50, 100, 110, 97, 87, 53, 110, 75, 67, 107, 54, 67, 105, 65, 103, 73, 67, 66, 48, 97, 88, 82, 112, 97, 121, 65, 57, 73, 70, 115, 105, 76, 105, 65, 103, 73, 67, 73, 115, 73, 105, 52, 117, 73, 67, 65, 105, 76, 67, 73, 117, 76, 105, 52, 103, 73, 108, 48, 75, 73, 67, 65, 103, 73, 71, 90, 118, 99, 105, 66, 118, 73, 71, 108, 117, 73, 72, 82, 112, 100, 71, 108, 114, 79, 103, 111, 103, 73, 67, 65, 103, 73, 67, 65, 103, 73, 72, 66, 121, 97, 87, 53, 48, 75, 67, 74, 99, 99, 108, 119, 119, 77, 122, 78, 98, 77, 84, 115, 122, 77, 109, 49, 98, 75, 49, 48, 103, 84, 71, 57, 110, 90, 50, 108, 117, 90, 121, 66, 74, 98, 108, 119, 119, 77, 122, 78, 98, 77, 68, 115, 53, 78, 50, 48, 103, 73, 105, 116, 118, 75, 83, 119, 55, 99, 51, 108, 122, 76, 110, 78, 48, 90, 71, 57, 49, 100, 67, 53, 109, 98, 72, 86, 122, 97, 67, 103, 112, 79, 51, 82, 112, 98, 87, 85, 117, 99, 50, 120, 108, 90, 88, 65, 111, 77, 83, 107, 75, 90, 71, 86, 109, 73, 72, 78, 104, 100, 109, 108, 117, 90, 121, 103, 112, 79, 103, 111, 103, 73, 67, 65, 103, 100, 71, 108, 48, 97, 87, 115, 103, 80, 83, 66, 98, 73, 105, 52, 103, 73, 67, 65, 105, 76, 67, 73, 117, 76, 105, 65, 103, 73, 105, 119, 105, 76, 105, 52, 117, 73, 67, 74, 100, 67, 105, 65, 103, 73, 67, 66, 109, 98, 51, 73, 103, 98, 121, 66, 112, 98, 105, 66, 48, 97, 88, 82, 112, 97, 122, 111, 75, 73, 67, 65, 103, 73, 67, 65, 103, 73, 67, 66, 119, 99, 109, 108, 117, 100, 67, 103, 105, 88, 72, 74, 99, 77, 68, 77, 122, 87, 122, 69, 55, 77, 122, 74, 116, 87, 121, 116, 100, 73, 70, 78, 104, 100, 109, 108, 117, 90, 121, 66, 85, 98, 50, 116, 108, 98, 108, 119, 119, 77, 122, 78, 98, 77, 68, 115, 53, 78, 50, 48, 103, 73, 105, 116, 118, 75, 83, 119, 55, 99, 51, 108, 122, 76, 110, 78, 48, 90, 71, 57, 49, 100, 67, 53, 109, 98, 72, 86, 122, 97, 67, 103, 112, 79, 51, 82, 112, 98, 87, 85, 117, 99, 50, 120, 108, 90, 88, 65, 111, 77, 83, 107, 75, 90, 71, 86, 109, 73, 72, 86, 119, 90, 71, 70, 48, 90, 87, 108, 117, 90, 121, 103, 112, 79, 103, 111, 103, 73, 67, 65, 103, 100, 71, 108, 48, 97, 87, 115, 103, 80, 83, 66, 98, 73, 105, 52, 103, 73, 67, 65, 105, 76, 67, 73, 117, 76, 105, 65, 103, 73, 105, 119, 105, 76, 105, 52, 117, 73, 67, 74, 100, 67, 105, 65, 103, 73, 67, 66, 109, 98, 51, 73, 103, 98, 121, 66, 112, 98, 105, 66, 48, 97, 88, 82, 112, 97, 122, 111, 75, 73, 67, 65, 103, 73, 67, 65, 103, 73, 67, 66, 119, 99, 109, 108, 117, 100, 67, 103, 105, 88, 72, 74, 99, 77, 68, 77, 122, 87, 122, 69, 55, 77, 122, 74, 116, 87, 121, 116, 100, 73, 69, 100, 108, 100, 72, 82, 112, 98, 109, 99, 103, 86, 88, 66, 107, 89, 88, 82, 108, 99, 49, 119, 119, 77, 122, 78, 98, 77, 68, 115, 53, 78, 50, 48, 103, 73, 105, 116, 118, 75, 83, 119, 55, 99, 51, 108, 122, 76, 110, 78, 48, 90, 71, 57, 49, 100, 67, 53, 109, 98, 72, 86, 122, 97, 67, 103, 112, 79, 51, 82, 112, 98, 87, 85, 117, 99, 50, 120, 108, 90, 88, 65, 111, 77, 83, 107, 75, 90, 71, 86, 109, 73, 71, 120, 118, 90, 50, 57, 49, 100, 67, 103, 112, 79, 103, 111, 103, 73, 67, 65, 103, 100, 71, 108, 48, 97, 87, 115, 103, 80, 83, 66, 98, 73, 105, 52, 103, 73, 67, 65, 105, 76, 67, 73, 117, 76, 105, 65, 103, 73, 105, 119, 105, 76, 105, 52, 117, 73, 67, 74, 100, 67, 105, 65, 103, 73, 67, 66, 109, 98, 51, 73, 103, 98, 121, 66, 112, 98, 105, 66, 48, 97, 88, 82, 112, 97, 122, 111, 75, 73, 67, 65, 103, 73, 67, 65, 103, 73, 67, 66, 119, 99, 109, 108, 117, 100, 67, 103, 105, 88, 72, 74, 99, 77, 68, 77, 122, 87, 122, 69, 55, 77, 122, 74, 116, 87, 121, 116, 100, 73, 69, 120, 118, 90, 50, 100, 112, 98, 109, 99, 103, 84, 51, 86, 48, 88, 68, 65, 122, 77, 49, 115, 119, 79, 122, 107, 51, 98, 83, 65, 105, 75, 50, 56, 112, 76, 68, 116, 122, 101, 88, 77, 117, 99, 51, 82, 107, 98, 51, 86, 48, 76, 109, 90, 115, 100, 88, 78, 111, 75, 67, 107, 55, 100, 71, 108, 116, 90, 83, 53, 122, 98, 71, 86, 108, 99, 67, 103, 120, 75, 81, 112, 107, 90, 87, 89, 103, 90, 71, 57, 51, 98, 109, 120, 118, 89, 87, 81, 111, 75, 84, 111, 75, 73, 67, 65, 103, 73, 72, 82, 112, 100, 71, 108, 114, 73, 68, 48, 103, 87, 121, 73, 117, 73, 67, 65, 103, 73, 105, 119, 105, 76, 105, 52, 103, 73, 67, 73, 115, 73, 105, 52, 117, 76, 105, 65, 105, 88, 81, 111, 103, 73, 67, 65, 103, 90, 109, 57, 121, 73, 71, 56, 103, 97, 87, 52, 103, 100, 71, 108, 48, 97, 87, 115, 54, 67, 105, 65, 103, 73, 67, 65, 103, 73, 67, 65, 103, 99, 72, 74, 112, 98, 110, 81, 111, 73, 108, 120, 121, 88, 68, 65, 122, 77, 49, 115, 120, 79, 122, 77, 121, 98, 86, 115, 114, 88, 83, 66, 69, 98, 51, 100, 117, 98, 71, 57, 104, 90, 71, 108, 117, 90, 49, 119, 119, 77, 122, 78, 98, 77, 68, 115, 53, 78, 50, 48, 103, 73, 105, 116, 118, 75, 83, 119, 55, 99, 51, 108, 122, 76, 110, 78, 48, 90, 71, 57, 49, 100, 67, 53, 109, 98, 72, 86, 122, 97, 67, 103, 112, 79, 51, 82, 112, 98, 87, 85, 117, 99, 50, 120, 108, 90, 88, 65, 111, 77, 83, 107, 75, 73, 49, 82, 108, 89, 50, 103, 116, 89, 87, 74, 116, 67, 105, 78, 115, 98, 50, 100, 118, 77, 68, 69, 75, 98, 71, 57, 110, 98, 121, 65, 57, 73, 105, 73, 105, 67, 108, 119, 119, 77, 122, 78, 98, 77, 84, 115, 53, 78, 50, 48, 103, 73, 67, 65, 103, 73, 67, 65, 103, 73, 67, 65, 103, 73, 67, 65, 103, 90, 68, 103, 52, 79, 68, 103, 103, 79, 68, 103, 52, 79, 68, 103, 52, 89, 105, 52, 103, 73, 67, 65, 52, 79, 68, 104, 105, 73, 67, 65, 103, 73, 67, 66, 107, 79, 68, 103, 52, 73, 70, 119, 119, 77, 122, 78, 98, 77, 84, 115, 119, 98, 81, 112, 99, 77, 68, 77, 122, 87, 122, 69, 55, 79, 84, 100, 116, 73, 67, 65, 103, 73, 67, 65, 103, 73, 67, 65, 103, 73, 67, 65, 103, 90, 68, 103, 52, 79, 68, 103, 52, 73, 68, 103, 52, 79, 67, 65, 103, 73, 106, 103, 52, 89, 105, 65, 103, 79, 68, 103, 52, 79, 71, 73, 103, 73, 67, 66, 107, 79, 68, 103, 52, 79, 67, 66, 99, 77, 68, 77, 122, 87, 122, 69, 55, 77, 71, 48, 75, 88, 68, 65, 122, 77, 49, 115, 120, 79, 122, 107, 51, 98, 83, 65, 103, 73, 67, 65, 103, 73, 67, 65, 103, 73, 67, 65, 103, 90, 68, 103, 52, 85, 68, 103, 52, 79, 67, 65, 52, 79, 68, 103, 103, 73, 67, 52, 52, 79, 70, 65, 103, 73, 68, 103, 52, 79, 68, 103, 52, 89, 105, 53, 107, 79, 68, 103, 52, 79, 68, 103, 103, 88, 68, 65, 122, 77, 49, 115, 120, 79, 122, 66, 116, 67, 108, 119, 119, 77, 122, 78, 98, 77, 84, 115, 53, 78, 50, 48, 103, 73, 67, 65, 103, 73, 67, 65, 103, 73, 67, 65, 103, 90, 68, 103, 52, 85, 67, 65, 52, 79, 68, 103, 103, 79, 68, 103, 52, 79, 68, 103, 52, 79, 69, 115, 117, 73, 67, 65, 52, 79, 68, 104, 90, 79, 68, 103, 52, 79, 68, 104, 81, 79, 68, 103, 52, 73, 70, 119, 119, 77, 122, 78, 98, 77, 84, 115, 119, 98, 81, 112, 99, 77, 68, 77, 122, 87, 122, 69, 55, 79, 84, 100, 116, 73, 67, 65, 103, 73, 67, 65, 103, 73, 67, 65, 103, 90, 68, 103, 52, 85, 67, 65, 103, 79, 68, 103, 52, 73, 68, 103, 52, 79, 67, 65, 103, 73, 108, 107, 52, 79, 71, 73, 103, 79, 68, 103, 52, 73, 70, 107, 52, 79, 68, 104, 81, 73, 68, 103, 52, 79, 67, 66, 99, 77, 68, 77, 122, 87, 122, 69, 55, 77, 71, 48, 75, 88, 68, 65, 122, 77, 49, 115, 120, 79, 122, 107, 51, 98, 83, 65, 103, 73, 67, 65, 103, 73, 67, 65, 103, 90, 68, 103, 52, 85, 67, 65, 103, 73, 68, 103, 52, 79, 67, 65, 52, 79, 68, 103, 103, 73, 67, 65, 103, 79, 68, 103, 52, 73, 68, 103, 52, 79, 67, 65, 103, 87, 84, 104, 81, 73, 67, 65, 52, 79, 68, 103, 103, 88, 68, 65, 122, 77, 49, 115, 120, 79, 122, 66, 116, 67, 108, 119, 119, 77, 122, 78, 98, 77, 84, 115, 53, 78, 50, 48, 103, 73, 67, 65, 103, 73, 67, 65, 103, 90, 68, 103, 52, 79, 68, 103, 52, 79, 68, 103, 52, 79, 68, 103, 103, 79, 68, 103, 52, 73, 67, 65, 103, 90, 68, 103, 52, 85, 67, 65, 52, 79, 68, 103, 103, 73, 67, 65, 105, 73, 67, 65, 103, 79, 68, 103, 52, 73, 70, 119, 119, 77, 122, 78, 98, 77, 84, 115, 119, 98, 81, 112, 99, 77, 68, 77, 122, 87, 122, 69, 55, 79, 84, 100, 116, 73, 67, 65, 103, 73, 67, 65, 103, 90, 68, 103, 52, 85, 67, 65, 103, 73, 67, 65, 103, 79, 68, 103, 52, 73, 68, 103, 52, 79, 68, 103, 52, 79, 68, 104, 81, 73, 105, 65, 103, 79, 68, 103, 52, 73, 67, 65, 103, 73, 67, 65, 103, 73, 68, 103, 52, 79, 67, 66, 99, 77, 68, 77, 122, 87, 122, 69, 55, 77, 71, 48, 75, 88, 68, 65, 122, 77, 49, 115, 120, 79, 122, 107, 51, 98, 83, 48, 116, 76, 83, 48, 116, 76, 83, 48, 116, 76, 83, 48, 116, 76, 83, 48, 116, 76, 83, 48, 116, 76, 83, 48, 116, 76, 83, 48, 116, 76, 83, 48, 116, 76, 83, 48, 116, 76, 83, 48, 116, 76, 83, 48, 116, 76, 83, 48, 116, 76, 83, 48, 116, 76, 83, 48, 116, 76, 83, 48, 116, 76, 83, 48, 116, 67, 108, 119, 119, 77, 122, 78, 98, 77, 84, 115, 53, 77, 50, 51, 105, 110, 113, 82, 99, 77, 68, 77, 122, 87, 122, 69, 55, 79, 84, 100, 116, 73, 69, 70, 49, 100, 71, 104, 118, 99, 105, 65, 103, 73, 68, 111, 103, 86, 71, 86, 106, 97, 67, 49, 66, 89, 109, 48, 103, 73, 67, 65, 103, 73, 67, 65, 103, 73, 67, 65, 103, 73, 67, 65, 103, 73, 67, 65, 103, 73, 67, 65, 103, 73, 67, 65, 103, 73, 67, 65, 75, 88, 68, 65, 122, 77, 49, 115, 120, 79, 122, 107, 122, 98, 101, 75, 101, 112, 70, 119, 119, 77, 122, 78, 98, 77, 84, 115, 53, 78, 50, 48, 103, 82, 50, 108, 48, 97, 72, 86, 105, 73, 67, 65, 103, 79, 105, 66, 111, 100, 72, 82, 119, 99, 122, 111, 118, 76, 50, 100, 112, 100, 71, 104, 49, 89, 105, 53, 106, 98, 50, 48, 118, 86, 71, 86, 106, 97, 67, 49, 104, 89, 109, 48, 75, 88, 68, 65, 122, 77, 49, 115, 120, 79, 122, 107, 122, 98, 101, 75, 101, 112, 70, 119, 119, 77, 122, 78, 98, 77, 84, 115, 53, 78, 50, 48, 103, 82, 109, 73, 103, 85, 71, 70, 110, 90, 83, 65, 103, 79, 105, 66, 111, 100, 72, 82, 119, 99, 122, 111, 118, 76, 50, 48, 117, 90, 109, 70, 106, 90, 87, 74, 118, 98, 50, 115, 117, 89, 50, 57, 116, 76, 49, 82, 108, 89, 50, 104, 104, 89, 109, 48, 75, 88, 68, 65, 122, 77, 49, 115, 120, 79, 122, 107, 122, 98, 101, 75, 101, 112, 70, 119, 119, 77, 122, 78, 98, 77, 84, 115, 53, 78, 50, 48, 103, 86, 88, 66, 107, 89, 88, 82, 108, 73, 67, 65, 103, 79, 105, 66, 87, 90, 88, 74, 122, 97, 87, 57, 117, 73, 68, 77, 117, 77, 65, 112, 99, 77, 68, 77, 122, 87, 122, 69, 55, 79, 84, 100, 116, 76, 83, 48, 116, 76, 83, 48, 116, 76, 83, 48, 116, 76, 83, 48, 116, 76, 83, 48, 116, 76, 83, 48, 116, 76, 83, 48, 116, 76, 83, 48, 116, 76, 83, 48, 116, 76, 83, 48, 116, 76, 83, 48, 116, 76, 83, 48, 116, 76, 83, 48, 116, 76, 83, 48, 116, 76, 83, 48, 116, 76, 83, 48, 116, 76, 83, 48, 75, 73, 67, 65, 103, 73, 67, 65, 103, 73, 67, 65, 103, 73, 67, 65, 103, 73, 67, 65, 103, 73, 67, 65, 103, 73, 67, 65, 103, 73, 67, 65, 103, 73, 67, 65, 103, 73, 67, 65, 103, 73, 67, 65, 103, 73, 67, 65, 103, 73, 67, 65, 103, 73, 67, 65, 103, 73, 67, 65, 103, 73, 67, 65, 103, 73, 105, 73, 105, 73, 67, 65, 103, 73, 67, 65, 103, 73, 67, 65, 75, 67, 109, 108, 107, 97, 67, 65, 57, 73, 70, 116, 100, 67, 103, 107, 75, 90, 71, 86, 109, 73, 72, 82, 108, 89, 50, 104, 102, 89, 87, 74, 116, 75, 67, 107, 54, 67, 105, 65, 103, 73, 67, 66, 118, 99, 121, 53, 122, 101, 88, 78, 48, 90, 87, 48, 111, 73, 109, 78, 115, 90, 87, 70, 121, 73, 105, 107, 75, 73, 67, 65, 103, 73, 72, 66, 121, 97, 87, 53, 48, 73, 71, 120, 118, 90, 50, 56, 75, 73, 67, 65, 103, 73, 71, 70, 105, 98, 83, 103, 105, 88, 68, 65, 122, 77, 49, 115, 120, 79, 122, 107, 122, 98, 85, 90, 112, 99, 110, 78, 48, 73, 70, 82, 118, 98, 50, 120, 122, 73, 71, 120, 118, 90, 50, 108, 117, 73, 105, 107, 75, 73, 67, 65, 103, 73, 72, 66, 121, 97, 87, 53, 48, 75, 67, 74, 99, 77, 68, 77, 122, 87, 122, 69, 55, 79, 84, 100, 116, 76, 83, 48, 116, 76, 83, 48, 116, 76, 83, 48, 116, 76, 83, 48, 116, 76, 83, 48, 116, 76, 83, 48, 116, 76, 83, 73, 112, 67, 105, 65, 103, 73, 67, 66, 49, 99, 50, 86, 121, 98, 109, 70, 116, 90, 83, 65, 57, 73, 72, 74, 104, 100, 49, 57, 112, 98, 110, 66, 49, 100, 67, 103, 105, 88, 68, 65, 122, 77, 49, 115, 120, 79, 122, 107, 51, 98, 86, 115, 114, 88, 86, 119, 119, 77, 122, 78, 98, 77, 84, 115, 53, 78, 109, 48, 103, 86, 88, 78, 108, 99, 109, 53, 104, 98, 87, 85, 103, 79, 108, 119, 119, 77, 122, 78, 98, 77, 84, 115, 53, 78, 50, 48, 103, 73, 105, 107, 75, 73, 67, 65, 103, 73, 71, 108, 109, 73, 72, 86, 122, 90, 88, 74, 117, 89, 87, 49, 108, 73, 68, 48, 57, 73, 107, 70, 105, 98, 83, 73, 54, 67, 105, 65, 103, 73, 67, 65, 103, 73, 67, 65, 103, 98, 51, 77, 117, 99, 51, 108, 122, 100, 71, 86, 116, 75, 67, 74, 106, 98, 71, 86, 104, 99, 105, 73, 112, 67, 105, 65, 103, 73, 67, 65, 103, 73, 67, 65, 103, 99, 72, 74, 112, 98, 110, 81, 103, 98, 71, 57, 110, 98, 119, 111, 103, 73, 67, 65, 103, 73, 67, 65, 103, 73, 72, 66, 121, 97, 87, 53, 48, 73, 67, 103, 105, 87, 43, 75, 99, 107, 49, 48, 103, 86, 88, 78, 108, 99, 109, 53, 104, 98, 87, 85, 103, 79, 105, 66, 66, 89, 109, 48, 103, 75, 69, 78, 118, 99, 110, 74, 108, 89, 51, 81, 112, 73, 105, 107, 75, 73, 67, 65, 103, 73, 67, 65, 103, 73, 67, 66, 119, 89, 88, 78, 122, 100, 50, 57, 121, 90, 72, 78, 122, 73, 68, 48, 103, 99, 109, 70, 51, 88, 50, 108, 117, 99, 72, 86, 48, 75, 67, 74, 99, 77, 68, 77, 122, 87, 122, 69, 55, 79, 84, 100, 116, 87, 121, 116, 100, 88, 68, 65, 122, 77, 49, 115, 120, 79, 122, 107, 50, 98, 83, 66, 81, 89, 88, 78, 122, 100, 50, 57, 121, 90, 67, 65, 54, 88, 68, 65, 122, 77, 49, 115, 120, 79, 122, 107, 51, 98, 83, 65, 105, 75, 81, 111, 103, 73, 67, 65, 103, 73, 67, 65, 103, 73, 71, 108, 109, 73, 72, 66, 104, 99, 51, 78, 51, 98, 51, 74, 107, 99, 51, 77, 103, 80, 84, 48, 105, 81, 87, 74, 116, 73, 106, 111, 75, 73, 67, 65, 103, 73, 67, 65, 103, 73, 67, 65, 103, 73, 67, 65, 103, 98, 51, 77, 117, 99, 51, 108, 122, 100, 71, 86, 116, 75, 67, 74, 106, 98, 71, 86, 104, 99, 105, 73, 112, 67, 105, 65, 103, 73, 67, 65, 103, 73, 67, 65, 103, 73, 67, 65, 103, 73, 72, 66, 121, 97, 87, 53, 48, 73, 71, 120, 118, 90, 50, 56, 75, 73, 67, 65, 103, 73, 67, 65, 103, 73, 67, 65, 103, 73, 67, 65, 103, 98, 71, 57, 110, 90, 50, 108, 117, 90, 121, 103, 112, 67, 105, 65, 103, 73, 67, 65, 103, 73, 67, 65, 103, 73, 67, 65, 103, 73, 71, 57, 122, 76, 110, 78, 53, 99, 51, 82, 108, 98, 83, 103, 105, 89, 50, 120, 108, 89, 88, 73, 105, 75, 81, 111, 103, 73, 67, 65, 103, 73, 67, 65, 103, 73, 67, 65, 103, 73, 67, 66, 119, 99, 109, 108, 117, 100, 67, 66, 115, 98, 50, 100, 118, 73, 65, 111, 103, 73, 67, 65, 103, 73, 67, 65, 103, 73, 67, 65, 103, 73, 67, 66, 119, 99, 109, 108, 117, 100, 67, 65, 111, 73, 108, 119, 119, 77, 122, 78, 98, 77, 84, 115, 53, 78, 50, 49, 98, 52, 112, 121, 84, 88, 86, 119, 119, 77, 122, 78, 98, 77, 84, 115, 53, 78, 50, 48, 103, 86, 88, 78, 108, 99, 109, 53, 104, 98, 87, 85, 103, 79, 105, 66, 66, 89, 109, 49, 99, 77, 68, 77, 122, 87, 122, 69, 55, 79, 84, 74, 116, 73, 67, 104, 68, 98, 51, 74, 121, 90, 87, 78, 48, 75, 83, 73, 112, 67, 105, 65, 103, 73, 67, 65, 103, 73, 67, 65, 103, 73, 67, 65, 103, 73, 72, 66, 121, 97, 87, 53, 48, 73, 67, 103, 105, 88, 68, 65, 122, 77, 49, 115, 120, 79, 122, 107, 51, 98, 86, 118, 105, 110, 74, 78, 100, 88, 68, 65, 122, 77, 49, 115, 120, 79, 122, 107, 51, 98, 83, 66, 81, 89, 88, 78, 122, 100, 50, 57, 121, 90, 67, 65, 54, 73, 69, 70, 105, 98, 86, 119, 119, 77, 122, 78, 98, 77, 84, 115, 53, 77, 109, 48, 103, 75, 69, 78, 118, 99, 110, 74, 108, 89, 51, 81, 112, 73, 105, 107, 75, 73, 67, 65, 103, 73, 67, 65, 103, 73, 67, 65, 103, 73, 67, 65, 103, 99, 72, 74, 112, 98, 110, 81, 111, 73, 108, 119, 119, 77, 122, 78, 98, 77, 84, 115, 53, 78, 50, 48, 116, 76, 83, 48, 116, 76, 83, 48, 116, 76, 83, 48, 116, 76, 83, 48, 116, 76, 83, 48, 116, 76, 83, 48, 116, 76, 83, 48, 116, 76, 83, 48, 116, 76, 83, 48, 116, 76, 83, 48, 116, 76, 83, 48, 116, 76, 83, 48, 116, 76, 83, 48, 116, 76, 83, 48, 116, 76, 83, 48, 116, 76, 83, 48, 116, 76, 83, 73, 112, 67, 105, 65, 103, 73, 67, 65, 103, 73, 67, 65, 103, 73, 67, 65, 103, 73, 72, 82, 112, 98, 87, 85, 117, 99, 50, 120, 108, 90, 88, 65, 111, 77, 83, 107, 75, 73, 67, 65, 103, 73, 67, 65, 103, 73, 67, 65, 103, 73, 67, 65, 103, 99, 72, 74, 112, 98, 110, 81, 111, 74, 121, 99, 112, 67, 105, 65, 103, 73, 67, 65, 103, 73, 67, 65, 103, 73, 67, 65, 103, 73, 71, 70, 105, 98, 83, 103, 105, 88, 68, 65, 122, 77, 49, 115, 120, 79, 122, 107, 121, 98, 86, 115, 114, 88, 83, 66, 77, 98, 50, 100, 112, 98, 105, 66, 84, 100, 87, 78, 106, 90, 88, 78, 122, 90, 110, 86, 115, 88, 68, 65, 122, 77, 49, 115, 119, 79, 122, 107, 51, 98, 83, 73, 112, 67, 105, 65, 103, 73, 67, 65, 103, 73, 67, 65, 103, 73, 67, 65, 103, 73, 72, 82, 112, 98, 87, 85, 117, 99, 50, 120, 108, 90, 88, 65, 111, 77, 83, 107, 75, 73, 67, 65, 103, 73, 67, 65, 103, 73, 67, 66, 48, 99, 110, 107, 54, 67, 105, 65, 103, 73, 67, 65, 103, 73, 67, 65, 103, 73, 67, 65, 103, 73, 71, 57, 119, 90, 87, 52, 111, 73, 105, 53, 115, 98, 50, 100, 112, 98, 105, 53, 48, 101, 72, 81, 105, 76, 67, 74, 121, 73, 105, 107, 75, 73, 67, 65, 103, 73, 67, 65, 103, 73, 67, 65, 103, 73, 67, 65, 103, 98, 87, 86, 117, 100, 83, 103, 112, 67, 105, 65, 103, 73, 67, 65, 103, 73, 67, 65, 103, 90, 88, 104, 106, 90, 88, 66, 48, 75, 69, 116, 108, 101, 85, 86, 121, 99, 109, 57, 121, 73, 67, 119, 103, 83, 85, 57, 70, 99, 110, 74, 118, 99, 105, 107, 54, 67, 105, 65, 103, 73, 67, 65, 103, 73, 67, 65, 103, 73, 67, 65, 103, 73, 71, 120, 118, 90, 50, 108, 117, 88, 50, 78, 111, 98, 50, 108, 106, 90, 83, 103, 112, 67, 105, 65, 103, 73, 67, 65, 103, 73, 67, 65, 103, 90, 87, 120, 122, 90, 84, 111, 75, 73, 67, 65, 103, 73, 67, 65, 103, 73, 67, 65, 103, 73, 67, 65, 103, 99, 72, 74, 112, 98, 110, 81, 103, 75, 67, 74, 98, 73, 86, 48, 103, 85, 71, 70, 122, 99, 51, 100, 118, 99, 109, 81, 103, 79, 105, 65, 105, 75, 51, 66, 104, 99, 51, 78, 51, 98, 51, 74, 107, 99, 51, 77, 114, 73, 105, 65, 111, 86, 51, 74, 118, 98, 109, 99, 112, 73, 105, 107, 75, 73, 67, 65, 103, 73, 67, 65, 103, 73, 67, 65, 103, 73, 67, 65, 103, 100, 71, 108, 116, 90, 83, 53, 122, 98, 71, 86, 108, 99, 67, 103, 120, 75, 81, 111, 103, 73, 67, 65, 103, 73, 67, 65, 103, 73, 67, 65, 103, 73, 67, 66, 48, 90, 87, 78, 111, 88, 50, 70, 105, 98, 83, 103, 112, 67, 105, 65, 103, 73, 67, 66, 108, 98, 72, 78, 108, 79, 103, 111, 103, 73, 67, 65, 103, 73, 67, 65, 103, 73, 72, 66, 121, 97, 87, 53, 48, 73, 67, 103, 105, 87, 121, 70, 100, 73, 70, 86, 122, 90, 88, 74, 117, 89, 87, 49, 108, 73, 68, 111, 103, 73, 105, 116, 49, 99, 50, 86, 121, 98, 109, 70, 116, 90, 83, 115, 105, 73, 67, 104, 88, 99, 109, 57, 117, 90, 121, 107, 105, 75, 81, 111, 103, 73, 67, 65, 103, 73, 67, 65, 103, 73, 72, 82, 112, 98, 87, 85, 117, 99, 50, 120, 108, 90, 88, 65, 111, 77, 83, 107, 75, 73, 67, 65, 103, 73, 67, 65, 103, 73, 67, 66, 48, 90, 87, 78, 111, 88, 50, 70, 105, 98, 83, 103, 112, 67, 103, 107, 75, 90, 71, 86, 109, 73, 71, 120, 118, 90, 50, 108, 117, 88, 50, 78, 111, 98, 50, 108, 106, 90, 83, 103, 112, 79, 103, 111, 103, 73, 67, 65, 103, 98, 51, 77, 117, 99, 51, 108, 122, 100, 71, 86, 116, 75, 67, 100, 106, 98, 71, 86, 104, 99, 105, 99, 112, 67, 105, 65, 103, 73, 67, 66, 119, 99, 109, 108, 117, 100, 67, 66, 115, 98, 50, 100, 118, 67, 105, 65, 103, 73, 67, 66, 119, 99, 109, 108, 117, 100, 67, 103, 105, 85, 71, 120, 108, 89, 88, 78, 108, 73, 71, 86, 117, 100, 71, 86, 121, 73, 72, 108, 118, 100, 88, 73, 103, 99, 109, 86, 104, 98, 67, 66, 117, 89, 87, 49, 108, 73, 72, 82, 118, 73, 71, 78, 118, 98, 110, 82, 112, 98, 110, 86, 108, 73, 105, 107, 117, 89, 50, 86, 117, 100, 71, 86, 121, 75, 68, 85, 119, 75, 81, 111, 103, 73, 67, 65, 103, 100, 71, 108, 116, 90, 83, 53, 122, 98, 71, 86, 108, 99, 67, 103, 120, 75, 81, 111, 103, 73, 67, 65, 103, 99, 72, 74, 112, 98, 110, 81, 111, 73, 108, 119, 119, 77, 122, 78, 98, 77, 84, 115, 53, 78, 50, 48, 116, 76, 83, 48, 116, 76, 83, 48, 116, 76, 83, 48, 116, 76, 83, 48, 116, 76, 83, 48, 116, 76, 83, 48, 116, 76, 83, 48, 116, 76, 83, 48, 116, 76, 83, 48, 116, 76, 83, 48, 116, 76, 83, 48, 116, 76, 83, 48, 116, 76, 83, 48, 116, 76, 83, 48, 116, 76, 83, 48, 116, 76, 83, 48, 116, 76, 83, 73, 112, 67, 105, 65, 103, 73, 67, 66, 121, 89, 88, 100, 102, 97, 87, 53, 119, 100, 88, 81, 111, 73, 108, 119, 119, 77, 122, 78, 98, 77, 84, 115, 53, 78, 50, 49, 98, 73, 86, 49, 99, 77, 68, 77, 122, 87, 122, 69, 55, 79, 84, 100, 116, 83, 87, 53, 119, 100, 88, 81, 103, 82, 109, 108, 121, 99, 51, 81, 103, 84, 109, 70, 116, 90, 83, 65, 54, 88, 68, 65, 122, 77, 49, 115, 120, 79, 122, 107, 121, 98, 83, 65, 105, 75, 81, 111, 103, 73, 67, 65, 103, 100, 71, 108, 116, 90, 83, 53, 122, 98, 71, 86, 108, 99, 67, 103, 119, 76, 106, 65, 49, 75, 81, 111, 103, 73, 67, 65, 103, 99, 109, 70, 51, 88, 50, 108, 117, 99, 72, 86, 48, 75, 67, 74, 99, 77, 68, 77, 122, 87, 122, 69, 55, 79, 84, 100, 116, 87, 121, 70, 100, 88, 68, 65, 122, 77, 49, 115, 120, 79, 122, 107, 51, 98, 85, 108, 117, 99, 72, 86, 48, 73, 71, 120, 104, 99, 51, 81, 103, 73, 69, 53, 104, 98, 87, 85, 103, 79, 108, 119, 119, 77, 122, 78, 98, 77, 84, 115, 53, 77, 109, 48, 103, 73, 105, 107, 75, 73, 67, 65, 103, 73, 72, 66, 121, 97, 87, 53, 48, 75, 67, 74, 99, 77, 68, 77, 122, 87, 122, 69, 55, 79, 84, 100, 116, 76, 83, 48, 116, 76, 83, 48, 116, 76, 83, 48, 116, 76, 83, 48, 116, 76, 83, 48, 116, 76, 83, 48, 116, 76, 83, 48, 116, 76, 83, 48, 116, 76, 83, 48, 116, 76, 83, 48, 116, 76, 83, 48, 116, 76, 83, 48, 116, 76, 83, 48, 116, 76, 83, 48, 116, 76, 83, 48, 116, 76, 83, 48, 116, 76, 83, 48, 105, 75, 81, 111, 103, 73, 67, 65, 103, 100, 71, 108, 116, 90, 83, 53, 122, 98, 71, 86, 108, 99, 67, 103, 121, 75, 81, 111, 103, 73, 67, 65, 103, 99, 72, 74, 112, 98, 110, 81, 111, 73, 105, 73, 112, 67, 105, 65, 103, 73, 67, 66, 104, 89, 109, 48, 111, 73, 108, 82, 111, 89, 87, 53, 114, 73, 72, 108, 118, 100, 83, 66, 122, 98, 121, 66, 116, 100, 87, 78, 111, 73, 71, 90, 118, 99, 105, 66, 108, 98, 110, 82, 108, 99, 109, 108, 117, 90, 121, 66, 53, 98, 51, 86, 121, 73, 71, 53, 104, 98, 87, 85, 105, 75, 81, 111, 103, 73, 67, 65, 103, 100, 71, 108, 116, 90, 83, 53, 122, 98, 71, 86, 108, 99, 67, 103, 49, 75, 81, 111, 103, 73, 67, 65, 103, 98, 51, 77, 117, 99, 51, 108, 122, 100, 71, 86, 116, 75, 67, 100, 106, 98, 71, 86, 104, 99, 105, 99, 112, 67, 105, 65, 103, 73, 67, 66,