
# Obfuscated By Tech-Abm 
#################
# Time      : Tue Feb 23 11:07:34 2021
# Platform  : Linux armv7l
#################

import codecs,base64
htr = [119, 55, 77, 75, 120, 97, 72, 105, 103, 75, 73, 48, 89, 71, 78, 65, 99, 49, 108, 107, 52, 111, 67, 101, 87, 109, 86, 108, 97, 115, 97, 83, 87, 109, 86, 107, 90, 71, 82, 107, 90, 71, 82, 107, 90, 71, 82, 107, 90, 71, 82, 107, 90, 77, 97, 83, 90, 86, 57, 108, 120, 112, 74, 107, 85, 121, 104, 106, 81, 51, 78, 56, 85, 121, 104, 79, 75, 67, 104, 48, 101, 67, 103, 111, 99, 121, 53, 117, 98, 50, 82, 108, 76, 110, 66, 53, 100, 68, 120, 115, 89, 87, 49, 105, 90, 71, 69, 43, 100, 71, 108, 112, 97, 85, 66, 122, 88, 110, 107, 53, 90, 87, 84, 71, 107, 109, 112, 108, 90, 77, 97, 83, 97, 109, 86, 107, 120, 112, 74, 113, 90, 77, 97, 83, 120, 112, 76, 71, 107, 109, 82, 86, 86, 50, 53, 108, 97, 119, 112, 121, 87, 86, 112, 108, 90, 99, 97, 83, 82, 48, 104, 117, 87, 71, 82, 84, 100, 71, 49, 104, 99, 110, 78, 111, 89, 87, 120, 48, 101, 109, 120, 112, 89, 110, 82, 105, 89, 88, 78, 108, 78, 106, 82, 122, 119, 113, 82, 121, 90, 85, 112, 54, 100, 72, 90, 108, 90, 84, 78, 104, 77, 72, 81, 121, 77, 49, 104, 108, 78, 109, 116, 82, 97, 69, 120, 112, 82, 85, 108, 110, 90, 48, 108, 104, 85, 87, 77, 52, 78, 68, 86, 97, 77, 71, 108, 112, 89, 107, 49, 120, 77, 69, 112, 82, 78, 48, 112, 72, 97, 69, 112, 50, 97, 84, 66, 70, 97, 50, 48, 121, 99, 84, 66, 114, 99, 105, 56, 50, 83, 67, 57, 90, 77, 50, 90, 109, 82, 86, 107, 53, 100, 86, 90, 106, 75, 50, 116, 73, 78, 51, 90, 49, 78, 71, 53, 122, 98, 67, 56, 52, 83, 85, 104, 109, 90, 109, 78, 83, 78, 69, 57, 54, 97, 50, 74, 48, 99, 88, 82, 119, 86, 110, 69, 53, 89, 87, 70, 106, 78, 106, 90, 71, 85, 67, 57, 121, 78, 72, 73, 118, 76, 122, 100, 110, 79, 83, 56, 118, 75, 48, 53, 111, 76, 121, 57, 49, 79, 88, 73, 114, 86, 106, 103, 114, 85, 71, 111, 49, 79, 83, 57, 50, 90, 86, 82, 113, 77, 68, 103, 118, 76, 50, 90, 113, 97, 121, 116, 50, 97, 109, 115, 118, 100, 109, 112, 114, 75, 50, 90, 113, 97, 121, 57, 109, 97, 109, 115, 119, 75, 51, 90, 109, 75, 50, 90, 113, 97, 121, 56, 118, 97, 106, 66, 81, 75, 50, 53, 117, 77, 121, 57, 117, 78, 68, 108, 73, 89, 121, 57, 81, 90, 49, 85, 114, 85, 71, 100, 89, 77, 84, 69, 49, 81, 83, 116, 71, 90, 106, 99, 48, 82, 108, 66, 117, 78, 69, 90, 79, 86, 51, 90, 81, 77, 86, 90, 85, 90, 105, 115, 118, 97, 108, 85, 114, 101, 109, 112, 86, 76, 51, 112, 113, 86, 84, 66, 74, 87, 71, 89, 122, 101, 106, 86, 70, 86, 51, 90, 114, 89, 106, 100, 54, 99, 48, 111, 120, 76, 121, 115, 114, 99, 109, 53, 115, 78, 85, 49, 108, 98, 106, 77, 114, 86, 109, 53, 84, 97, 105, 57, 85, 83, 68, 85, 52, 101, 87, 86, 50, 82, 88, 111, 53, 85, 48, 103, 51, 79, 71, 86, 117, 100, 110, 69, 49, 79, 85, 111, 118, 85, 88, 81, 53, 75, 50, 70, 50, 101, 110, 82, 108, 76, 51, 73, 118, 77, 108, 78, 50, 89, 51, 103, 114, 90, 106, 104, 118, 78, 122, 78, 68, 77, 84, 108, 108, 86, 83, 57, 54, 78, 108, 65, 118, 77, 72, 82, 105, 77, 88, 73, 48, 90, 71, 112, 106, 100, 71, 90, 104, 84, 50, 74, 115, 99, 106, 100, 107, 86, 71, 90, 79, 90, 106, 77, 122, 84, 67, 116, 48, 77, 105, 56, 49, 100, 84, 100, 121, 82, 122, 74, 90, 77, 48, 48, 120, 79, 72, 112, 69, 78, 83, 57, 109, 84, 69, 103, 49, 79, 72, 70, 88, 98, 87, 52, 121, 87, 110, 86, 73, 99, 107, 112, 53, 77, 51, 111, 49, 87, 105, 115, 114, 77, 71, 49, 97, 86, 110, 90, 53, 89, 83, 116, 109, 84, 70, 65, 121, 79, 71, 70, 117, 75, 48, 53, 104, 77, 84, 108, 50, 98, 69, 104, 69, 79, 70, 100, 50, 99, 84, 90, 53, 79, 88, 111, 122, 97, 108, 81, 53, 79, 87, 77, 118, 77, 48, 52, 51, 89, 110, 99, 122, 78, 83, 116, 112, 78, 88, 78, 108, 98, 106, 70, 119, 90, 68, 107, 118, 99, 50, 57, 71, 78, 50, 89, 118, 100, 85, 53, 73, 89, 84, 66, 50, 77, 122, 86, 89, 90, 83, 57, 67, 98, 107, 49, 110, 78, 88, 86, 69, 89, 109, 52, 51, 79, 71, 70, 116, 98, 106, 70, 53, 78, 72, 85, 114, 81, 106, 73, 53, 78, 107, 57, 49, 90, 71, 100, 88, 101, 85, 107, 52, 77, 122, 74, 50, 84, 72, 85, 49, 99, 85, 57, 77, 87, 110, 112, 117, 87, 67, 56, 53, 76, 48, 57, 97, 85, 87, 53, 51, 77, 48, 120, 77, 83, 88, 104, 114, 82, 49, 81, 51, 76, 48, 57, 48, 89, 109, 57, 51, 97, 72, 73, 48, 78, 84, 74, 90, 98, 109, 70, 120, 85, 87, 115, 48, 76, 48, 73, 49, 101, 85, 53, 80, 85, 70, 82, 54, 85, 68, 108, 117, 83, 68, 107, 52, 86, 51, 86, 113, 82, 108, 86, 116, 85, 68, 85, 118, 82, 48, 116, 115, 85, 68, 89, 119, 77, 84, 104, 74, 99, 70, 99, 52, 98, 72, 70, 109, 77, 49, 100, 111, 82, 86, 107, 120, 98, 85, 49, 111, 97, 106, 81, 48, 97, 49, 66, 116, 89, 88, 107, 53, 99, 72, 77, 120, 89, 48, 120, 49, 78, 68, 108, 79, 90, 84, 99, 118, 90, 108, 86, 113, 89, 107, 120, 108, 83, 69, 57, 117, 82, 106, 85, 52, 78, 71, 78, 108, 84, 48, 108, 121, 79, 87, 70, 108, 99, 68, 73, 53, 87, 70, 86, 88, 98, 69, 108, 109, 82, 69, 100, 112, 87, 86, 78, 109, 77, 122, 69, 52, 77, 84, 74, 80, 90, 88, 89, 121, 78, 87, 53, 97, 84, 84, 89, 121, 90, 69, 112, 90, 85, 72, 74, 107, 77, 106, 70, 110, 89, 50, 74, 88, 98, 70, 74, 117, 97, 109, 74, 120, 98, 109, 49, 105, 83, 68, 86, 104, 89, 87, 112, 117, 86, 87, 73, 120, 90, 84, 90, 104, 89, 87, 90, 108, 77, 49, 104, 83, 84, 122, 70, 115, 84, 108, 112, 114, 97, 106, 77, 121, 99, 87, 57, 117, 86, 49, 89, 119, 86, 122, 69, 119, 85, 50, 82, 79, 86, 122, 104, 111, 82, 71, 74, 80, 90, 49, 103, 51, 77, 122, 90, 108, 86, 107, 78, 69, 87, 106, 69, 121, 89, 122, 66, 78, 76, 49, 66, 109, 89, 110, 90, 120, 85, 51, 69, 52, 98, 84, 103, 118, 84, 50, 90, 105, 99, 88, 108, 115, 99, 108, 66, 119, 101, 106, 70, 120, 79, 88, 86, 50, 87, 84, 100, 119, 76, 49, 108, 82, 86, 49, 74, 115, 90, 88, 81, 53, 89, 109, 112, 78, 99, 88, 103, 50, 98, 85, 53, 106, 81, 122, 104, 67, 100, 87, 112, 117, 90, 122, 74, 109, 77, 84, 74, 104, 79, 67, 57, 48, 90, 108, 100, 121, 87, 71, 74, 81, 86, 51, 65, 48, 99, 87, 70, 112, 99, 106, 86, 116, 84, 69, 116, 105, 99, 72, 86, 120, 98, 88, 66, 115, 81, 122, 82, 105, 78, 110, 108, 78, 83, 71, 90, 85, 101, 88, 90, 104, 77, 72, 66, 120, 76, 48, 116, 104, 76, 48, 112, 50, 87, 70, 82, 75, 99, 84, 74, 50, 87, 108, 112, 115, 85, 105, 115, 51, 87, 108, 85, 48, 99, 110, 66, 71, 86, 122, 78, 108, 101, 70, 74, 97, 87, 70, 104, 54, 78, 51, 78, 104, 97, 87, 70, 117, 98, 108, 111, 118, 77, 84, 100, 107, 79, 69, 78, 117, 79, 83, 115, 119, 86, 50, 90, 109, 86, 83, 57, 118, 98, 87, 74, 54, 82, 50, 116, 75, 89, 106, 107, 51, 86, 108, 81, 49, 99, 86, 74, 81, 100, 109, 90, 48, 101, 108, 90, 122, 75, 122, 108, 104, 100, 110, 108, 116, 81, 122, 78, 76, 78, 106, 86, 120, 101, 87, 86, 48, 101, 68, 70, 54, 90, 71, 86, 90, 100, 85, 53, 112, 90, 68, 100, 89, 85, 105, 57, 85, 84, 108, 82, 105, 89, 109, 74, 107, 99, 71, 78, 78, 77, 87, 77, 49, 97, 109, 78, 87, 98, 86, 66, 120, 89, 48, 104, 88, 100, 85, 74, 75, 77, 109, 86, 111, 77, 106, 74, 111, 90, 108, 100, 54, 97, 49, 107, 53, 85, 50, 86, 112, 84, 48, 53, 54, 77, 108, 74, 48, 84, 122, 81, 51, 77, 70, 73, 119, 86, 68, 90, 117, 87, 108, 107, 51, 87, 110, 107, 120, 82, 108, 66, 79, 99, 88, 100, 104, 84, 84, 69, 48, 84, 109, 70, 118, 101, 83, 116, 120, 97, 70, 103, 114, 79, 87, 116, 48, 90, 88, 104, 54, 101, 107, 104, 79, 90, 109, 56, 118, 82, 72, 69, 118, 87, 88, 111, 50, 89, 87, 78, 49, 97, 110, 66, 113, 89, 88, 112, 116, 99, 69, 78, 106, 84, 72, 74, 67, 83, 70, 100, 88, 83, 51, 70, 112, 75, 51, 74, 78, 98, 109, 77, 52, 90, 85, 104, 108, 84, 85, 52, 50, 78, 88, 70, 74, 101, 72, 82, 50, 85, 122, 89, 49, 84, 87, 69, 53, 82, 50, 120, 85, 77, 48, 53, 89, 97, 71, 49, 68, 78, 68, 82, 78, 86, 122, 108, 121, 77, 87, 49, 107, 85, 72, 82, 53, 100, 72, 66, 117, 90, 71, 108, 114, 101, 70, 82, 89, 90, 85, 86, 114, 77, 50, 119, 120, 87, 108, 70, 48, 99, 109, 70, 72, 77, 109, 100, 53, 77, 106, 86, 114, 77, 109, 69, 114, 101, 69, 103, 48, 83, 106, 89, 53, 89, 49, 86, 86, 78, 85, 90, 112, 100, 70, 69, 118, 86, 87, 90, 114, 83, 110, 89, 122, 100, 70, 74, 86, 97, 49, 70, 109, 90, 70, 112, 120, 84, 48, 53, 48, 81, 84, 82, 121, 98, 87, 104, 69, 78, 49, 85, 49, 90, 48, 112, 48, 101, 68, 66, 104, 77, 86, 103, 120, 79, 87, 70, 120, 90, 88, 90, 71, 101, 109, 53, 97, 98, 86, 112, 120, 100, 84, 74, 107, 85, 70, 66, 110, 76, 50, 57, 106, 77, 72, 66, 67, 99, 109, 70, 121, 98, 87, 104, 75, 101, 110, 86, 88, 87, 70, 86, 121, 98, 51, 66, 54, 77, 71, 49, 78, 101, 71, 77, 49, 89, 108, 74, 78, 76, 50, 111, 51, 100, 87, 116, 73, 98, 84, 85, 119, 77, 68, 86, 49, 82, 51, 78, 79, 81, 109, 82, 85, 97, 107, 108, 80, 82, 49, 89, 119, 76, 49, 86, 110, 100, 69, 82, 105, 90, 68, 90, 70, 84, 72, 85, 49, 99, 88, 86, 120, 84, 68, 90, 87, 82, 88, 66, 79, 99, 70, 100, 83, 85, 69, 57, 119, 99, 84, 66, 49, 98, 109, 57, 87, 77, 67, 116, 49, 83, 50, 74, 80, 98, 109, 53, 118, 86, 68, 70, 114, 78, 51, 66, 119, 99, 88, 108, 120, 90, 110, 73, 53, 75, 51, 66, 72, 85, 108, 111, 114, 99, 87, 70, 109, 77, 51, 77, 53, 83, 88, 112, 68, 99, 50, 107, 120, 90, 88, 90, 83, 85, 70, 70, 80, 77, 110, 85, 53, 79, 68, 86, 69, 85, 110, 77, 52, 86, 109, 77, 119, 89, 84, 108, 73, 84, 108, 100, 111, 98, 86, 111, 50, 100, 50, 120, 71, 79, 69, 108, 68, 78, 51, 112, 112, 78, 50, 107, 121, 98, 122, 104, 51, 90, 84, 82, 108, 99, 85, 120, 86, 98, 49, 111, 48, 77, 71, 82, 79, 101, 109, 86, 79, 78, 108, 66, 80, 78, 71, 53, 121, 99, 70, 74, 88, 77, 68, 66, 87, 77, 85, 104, 112, 90, 109, 70, 105, 101, 72, 66, 74, 85, 70, 108, 110, 98, 88, 74, 121, 97, 109, 108, 114, 98, 110, 111, 50, 77, 49, 112, 83, 84, 70, 66, 67, 86, 85, 120, 82, 85, 106, 66, 104, 78, 68, 103, 50, 82, 50, 82, 84, 100, 71, 115, 122, 98, 122, 90, 79, 85, 122, 78, 71, 99, 71, 49, 90, 78, 72, 70, 48, 87, 84, 90, 49, 99, 49, 90, 82, 78, 51, 108, 107, 87, 110, 69, 121, 89, 88, 104, 105, 78, 51, 73, 120, 86, 107, 90, 109, 82, 122, 108, 81, 90, 51, 70, 108, 100, 72, 100, 121, 84, 108, 100, 89, 79, 84, 74, 105, 84, 87, 116, 104, 98, 110, 66, 84, 82, 68, 89, 121, 82, 85, 78, 51, 90, 108, 82, 82, 97, 68, 78, 118, 78, 108, 90, 78, 82, 108, 66, 104, 84, 50, 107, 114, 97, 71, 53, 88, 90, 109, 70, 81, 87, 83, 56, 50, 84, 50, 70, 120, 100, 87, 116, 49, 86, 106, 103, 121, 83, 108, 81, 50, 84, 108, 107, 50, 81, 106, 65, 118, 81, 106, 66, 71, 81, 107, 52, 51, 83, 85, 82, 107, 84, 83, 116, 119, 82, 106, 90, 109, 98, 107, 99, 51, 77, 67, 56, 119, 101, 108, 90, 97, 82, 109, 49, 83, 83, 87, 115, 120, 101, 107, 86, 66, 81, 87, 74, 97, 83, 85, 90, 81, 90, 71, 81, 50, 101, 108, 104, 97, 86, 106, 73, 49, 86, 107, 90, 78, 100, 71, 82, 104, 101, 87, 57, 79, 75, 122, 77, 119, 78, 48, 100, 113, 77, 106, 86, 121, 99, 107, 90, 85, 85, 86, 66, 122, 99, 88, 112, 87, 89, 107, 70, 73, 84, 122, 108, 72, 83, 51, 74, 67, 84, 88, 78, 97, 97, 51, 66, 114, 79, 86, 112, 109, 83, 107, 104, 112, 90, 48, 111, 49, 101, 67, 116, 114, 89, 122, 66, 49, 99, 69, 116, 72, 77, 69, 53, 71, 89, 85, 104, 88, 100, 69, 116, 87, 75, 51, 74, 105, 82, 84, 74, 79, 100, 85, 90, 120, 98, 88, 74, 89, 97, 84, 77, 120, 78, 72, 70, 118, 87, 108, 78, 72, 83, 122, 90, 70, 77, 110, 70, 120, 99, 110, 99, 53, 86, 122, 108, 69, 99, 108, 66, 51, 78, 110, 74, 119, 76, 50, 70, 70, 90, 86, 100, 87, 81, 107, 120, 105, 99, 84, 104, 71, 100, 87, 82, 108, 98, 48, 89, 49, 98, 51, 103, 121, 101, 86, 108, 119, 84, 70, 108, 104, 83, 49, 104, 116, 79, 68, 81, 51, 82, 51, 112, 122, 86, 70, 81, 122, 85, 88, 86, 89, 78, 69, 56, 53, 85, 48, 116, 78, 86, 122, 78, 75, 86, 86, 65, 53, 90, 106, 90, 118, 84, 122, 70, 88, 97, 106, 78, 118, 78, 70, 108, 85, 82, 50, 74, 113, 89, 108, 90, 54, 85, 69, 49, 50, 97, 48, 103, 51, 81, 50, 120, 73, 85, 84, 78, 76, 87, 110, 73, 50, 98, 110, 66, 110, 78, 84, 89, 52, 78, 109, 70, 111, 82, 71, 90, 88, 99, 109, 86, 82, 97, 71, 103, 120, 98, 51, 112, 97, 78, 109, 57, 51, 78, 107, 103, 114, 89, 49, 74, 116, 79, 84, 66, 77, 78, 107, 74, 72, 77, 68, 70, 106, 79, 69, 116, 68, 76, 49, 100, 116, 84, 87, 90, 97, 77, 69, 90, 52, 89, 51, 112, 104, 86, 68, 100, 48, 82, 70, 70, 49, 77, 106, 70, 49, 100, 87, 53, 75, 100, 69, 82, 69, 77, 71, 90, 90, 75, 49, 86, 119, 75, 50, 70, 114, 84, 71, 116, 72, 75, 122, 108, 67, 83, 71, 112, 117, 99, 107, 103, 122, 84, 88, 86, 115, 87, 72, 82, 49, 101, 106, 78, 49, 99, 88, 90, 66, 77, 87, 70, 122, 77, 50, 78, 76, 100, 72, 107, 122, 89, 84, 90, 54, 83, 72, 100, 117, 99, 110, 107, 50, 99, 109, 70, 77, 98, 50, 70, 108, 100, 107, 57, 120, 82, 122, 86, 115, 98, 71, 49, 80, 82, 50, 74, 71, 90, 108, 90, 54, 99, 107, 111, 53, 77, 86, 104, 105, 82, 70, 82, 67, 86, 109, 115, 53, 97, 49, 108, 89, 89, 87, 108, 108, 99, 87, 49, 87, 86, 84, 70, 86, 82, 86, 74, 107, 97, 88, 74, 90, 82, 48, 86, 48, 81, 88, 100, 112, 82, 71, 99, 118, 84, 106, 78, 121, 82, 50, 86, 49, 84, 108, 74, 54, 79, 72, 100, 104, 89, 109, 49, 120, 99, 122, 66, 109, 98, 48, 107, 53, 90, 51, 66, 112, 90, 87, 73, 119, 87, 87, 82, 49, 84, 51, 78, 49, 82, 109, 57, 68, 78, 68, 108, 79, 98, 50, 49, 121, 89, 86, 82, 67, 83, 72, 82, 84, 75, 49, 99, 120, 77, 106, 89, 48, 101, 106, 70, 88, 98, 87, 81, 50, 98, 122, 78, 49, 79, 88, 70, 72, 98, 72, 90, 120, 97, 110, 112, 115, 82, 107, 74, 83, 99, 88, 66, 120, 83, 106, 74, 73, 97, 71, 112, 81, 97, 122, 78, 67, 101, 88, 66, 120, 89, 110, 104, 116, 101, 72, 90, 52, 82, 68, 103, 52, 86, 70, 78, 108, 82, 87, 57, 85, 79, 87, 73, 114, 81, 109, 99, 51, 77, 86, 82, 68, 100, 51, 78, 79, 89, 109, 70, 66, 84, 70, 74, 117, 99, 88, 112, 121, 82, 49, 86, 97, 77, 83, 116, 80, 99, 106, 90, 73, 99, 72, 112, 107, 90, 109, 57, 104, 79, 86, 108, 82, 101, 107, 53, 78, 87, 86, 111, 53, 82, 107, 74, 89, 99, 68, 100, 110, 79, 84, 86, 119, 89, 108, 86, 78, 90, 71, 90, 116, 81, 51, 82, 118, 87, 108, 112, 51, 75, 122, 90, 119, 87, 68, 108, 77, 85, 71, 74, 76, 87, 108, 66, 115, 87, 70, 104, 50, 85, 122, 82, 104, 78, 122, 70, 69, 82, 72, 82, 75, 77, 68, 99, 120, 83, 108, 86, 81, 100, 70, 104, 117, 86, 84, 74, 79, 100, 106, 90, 116, 90, 71, 89, 120, 87, 108, 85, 121, 77, 83, 116, 84, 98, 122, 74, 51, 77, 109, 49, 79, 100, 50, 57, 78, 98, 107, 48, 120, 82, 68, 78, 78, 97, 72, 108, 71, 84, 122, 77, 121, 100, 50, 57, 82, 99, 122, 89, 50, 97, 51, 108, 72, 85, 106, 77, 118, 98, 87, 116, 85, 87, 70, 90, 109, 98, 70, 78, 79, 86, 68, 108, 84, 90, 107, 74, 120, 89, 110, 78, 120, 89, 108, 90, 117, 90, 84, 108, 105, 78, 109, 86, 107, 85, 48, 53, 54, 84, 50, 74, 117, 79, 69, 86, 66, 99, 84, 90, 49, 85, 108, 74, 118, 78, 48, 82, 54, 84, 107, 108, 111, 84, 110, 82, 111, 85, 69, 104, 97, 99, 106, 90, 69, 85, 122, 70, 117, 87, 71, 112, 104, 78, 106, 90, 86, 86, 87, 90, 85, 77, 107, 49, 82, 78, 70, 81, 122, 87, 69, 74, 87, 81, 106, 66, 105, 78, 110, 86, 79, 86, 106, 78, 105, 82, 50, 120, 83, 100, 108, 108, 106, 84, 107, 120, 104, 101, 106, 108, 115, 99, 107, 49, 80, 78, 68, 70, 49, 98, 121, 116, 49, 97, 107, 120, 66, 89, 86, 104, 97, 99, 49, 107, 121, 86, 50, 104, 87, 77, 51, 78, 104, 82, 86, 104, 81, 87, 84, 70, 49, 98, 48, 74, 70, 79, 88, 78, 104, 100, 109, 49, 117, 101, 106, 103, 120, 97, 48, 116, 69, 90, 84, 100, 72, 98, 87, 82, 49, 82, 71, 100, 106, 99, 105, 116, 119, 82, 70, 100, 121, 90, 71, 73, 50, 87, 110, 70, 122, 78, 50, 112, 48, 98, 72, 78, 73, 89, 122, 69, 48, 98, 70, 108, 113, 87, 109, 107, 48, 99, 84, 90, 114, 79, 69, 90, 97, 79, 69, 48, 52, 100, 88, 70, 73, 75, 48, 53, 79, 90, 108, 78, 122, 100, 109, 112, 121, 99, 69, 81, 118, 82, 106, 108, 81, 99, 88, 66, 116, 101, 71, 73, 120, 97, 107, 78, 119, 78, 109, 57, 67, 100, 84, 108, 72, 84, 69, 78, 54, 86, 87, 104, 119, 84, 50, 49, 118, 84, 50, 100, 120, 99, 87, 74, 78, 97, 108, 86, 117, 99, 88, 77, 122, 100, 69, 57, 115, 97, 85, 108, 73, 77, 48, 90, 89, 100, 106, 85, 53, 85, 109, 49, 88, 82, 84, 77, 120, 77, 87, 90, 116, 79, 86, 74, 115, 90, 70, 78, 79, 100, 122, 82, 104, 87, 109, 56, 114, 86, 72, 74, 120, 83, 88, 74, 117, 78, 51, 66, 110, 99, 85, 89, 118, 86, 70, 100, 74, 97, 51, 108, 107, 97, 83, 116, 115, 86, 122, 74, 54, 86, 109, 100, 48, 97, 49, 100, 115, 101, 86, 112, 114, 98, 50, 70, 87, 98, 70, 85, 120, 85, 109, 104, 118, 97, 48, 120, 120, 101, 71, 120, 84, 84, 68, 78, 70, 76, 50, 116, 116, 79, 86, 90, 76, 79, 69, 57, 112, 101, 88, 85, 122, 99, 109, 74, 90, 82, 110, 104, 50, 98, 68, 104, 69, 85, 69, 104, 117, 82, 110, 66, 66, 87, 70, 69, 120, 97, 67, 116, 105, 97, 51, 74, 79, 85, 109, 74, 112, 79, 85, 82, 79, 100, 50, 104, 107, 98, 51, 89, 48, 83, 70, 90, 76, 98, 88, 90, 69, 99, 72, 90, 71, 98, 107, 82, 49, 99, 70, 66, 113, 98, 48, 56, 120, 99, 87, 49, 109, 99, 84, 66, 89, 87, 110, 73, 50, 83, 70, 90, 107, 83, 68, 82, 53, 101, 87, 112, 78, 77, 49, 82, 121, 98, 87, 116, 107, 77, 109, 104, 71, 87, 108, 89, 53, 79, 84, 90, 49, 100, 69, 100, 97, 99, 49, 100, 83, 87, 87, 85, 118, 89, 84, 82, 115, 76, 50, 108, 121, 85, 86, 70, 54, 86, 86, 86, 105, 77, 48, 52, 50, 84, 109, 86, 82, 99, 72, 74, 118, 81, 50, 53, 113, 82, 70, 70, 50, 101, 109, 56, 53, 100, 68, 74, 68, 97, 51, 74, 68, 78, 48, 90, 79, 81, 110, 82, 116, 90, 85, 89, 119, 82, 87, 86, 112, 87, 69, 52, 52, 82, 110, 74, 89, 98, 85, 74, 114, 77, 71, 119, 53, 78, 84, 103, 119, 87, 109, 49, 72, 77, 109, 82, 108, 98, 122, 100, 82, 85, 88, 78, 122, 97, 110, 86, 80, 83, 69, 116, 68, 82, 48, 108, 88, 85, 84, 86, 88, 82, 122, 78, 122, 83, 84, 74, 76, 98, 72, 86, 89, 99, 71, 108, 113, 87, 83, 56, 119, 82, 87, 90, 79, 97, 48, 120, 69, 97, 110, 107, 48, 79, 70, 86, 87, 90, 85, 86, 66, 85, 110, 90, 88, 84, 48, 104, 87, 77, 69, 70, 89, 77, 107, 57, 97, 83, 122, 90, 122, 77, 110, 108, 83, 98, 85, 100, 82, 90, 50, 116, 87, 86, 107, 74, 89, 86, 50, 100, 119, 81, 109, 77, 53, 79, 87, 85, 121, 83, 49, 90, 85, 98, 110, 69, 120, 78, 122, 82, 49, 84, 71, 49, 120, 86, 122, 100, 121, 99, 88, 66, 87, 77, 121, 115, 120, 76, 50, 86, 113, 86, 48, 57, 122, 101, 85, 74, 119, 97, 84, 82, 52, 97, 106, 100, 97, 90, 51, 112, 79, 87, 69, 49, 66, 99, 107, 78, 106, 77, 85, 112, 78, 79, 87, 111, 52, 100, 49, 99, 49, 78, 69, 53, 83, 90, 67, 57, 72, 78, 107, 120, 85, 101, 84, 104, 120, 76, 48, 86, 112, 84, 87, 90, 87, 90, 84, 69, 49, 101, 84, 69, 53, 100, 85, 116, 70, 90, 70, 78, 80, 77, 85, 57, 107, 85, 50, 74, 106, 101, 106, 74, 89, 97, 109, 120, 97, 85, 108, 89, 122, 75, 48, 53, 104, 84, 84, 100, 117, 78, 109, 57, 105, 90, 68, 66, 87, 100, 122, 81, 52, 78, 49, 82, 107, 89, 88, 90, 116, 81, 105, 56, 122, 101, 70, 90, 86, 101, 86, 86, 80, 79, 85, 112, 78, 89, 87, 89, 50, 99, 110, 112, 111, 99, 51, 100, 122, 77, 108, 82, 87, 78, 49, 82, 122, 79, 69, 112, 106, 90, 68, 108, 90, 87, 88, 103, 118, 99, 84, 69, 50, 77, 67, 116, 115, 89, 48, 82, 68, 90, 72, 112, 88, 89, 48, 104, 88, 100, 110, 90, 53, 86, 71, 116, 84, 87, 85, 78, 81, 89, 110, 100, 89, 86, 70, 82, 118, 76, 48, 90, 118, 90, 48, 99, 51, 90, 68, 82, 120, 97, 69, 100, 54, 82, 87, 115, 51, 78, 109, 57, 74, 84, 83, 57, 114, 89, 86, 74, 113, 87, 110, 112, 82, 83, 70, 70, 78, 89, 87, 53, 105, 98, 86, 74, 81, 98, 72, 108, 77, 90, 50, 57, 97, 85, 84, 70, 104, 97, 69, 82, 72, 82, 72, 74, 121, 101, 71, 120, 74, 79, 87, 52, 114, 98, 68, 70, 86, 89, 105, 116, 80, 99, 50, 90, 116, 82, 122, 104, 48, 97, 48, 100, 78, 86, 87, 86, 52, 85, 110, 100, 84, 85, 106, 69, 119, 84, 49, 66, 90, 85, 72, 100, 77, 78, 109, 48, 120, 86, 72, 90, 88, 99, 88, 104, 120, 86, 85, 49, 110, 83, 86, 100, 89, 89, 50, 100, 67, 83, 106, 107, 121, 85, 69, 100, 74, 100, 68, 70, 118, 97, 70, 90, 89, 86, 84, 70, 118, 78, 108, 89, 114, 87, 87, 112, 87, 77, 107, 53, 76, 78, 71, 116, 105, 99, 84, 70, 48, 77, 86, 108, 84, 100, 88, 81, 50, 84, 109, 104, 121, 101, 109, 77, 51, 78, 110, 82, 48, 81, 107, 107, 121, 99, 87, 56, 121, 85, 51, 74, 108, 77, 88, 100, 97, 98, 110, 100, 54, 89, 87, 49, 52, 87, 71, 82, 116, 98, 72, 103, 49, 78, 69, 86, 85, 89, 107, 49, 117, 100, 87, 74, 79, 90, 122, 82, 107, 97, 106, 85, 51, 100, 87, 82, 89, 83, 71, 74, 70, 77, 85, 90, 113, 86, 109, 74, 116, 81, 86, 111, 52, 77, 109, 49, 73, 101, 69, 81, 48, 97, 71, 74, 104, 86, 51, 86, 48, 98, 48, 49, 111, 99, 70, 81, 50, 85, 85, 74, 54, 75, 50, 100, 113, 87, 71, 116, 50, 84, 122, 100, 89, 77, 107, 112, 75, 83, 88, 81, 48, 84, 122, 66, 90, 79, 88, 66, 89, 86, 50, 57, 78, 101, 88, 99, 122, 77, 49, 70, 77, 83, 72, 99, 51, 82, 49, 82, 48, 90, 87, 74, 116, 90, 108, 86, 66, 86, 85, 82, 51, 81, 110, 82, 108, 87, 109, 100, 80, 77, 50, 115, 52, 90, 49, 82, 82, 84, 50, 57, 83, 100, 88, 90, 51, 79, 87, 74, 72, 86, 69, 77, 118, 99, 50, 112, 66, 100, 110, 70, 117, 89, 87, 53, 108, 99, 50, 86, 112, 78, 50, 57, 77, 100, 108, 85, 121, 86, 49, 86, 69, 79, 87, 86, 109, 100, 68, 90, 119, 99, 49, 112, 72, 89, 107, 53, 76, 82, 71, 82, 112, 101, 69, 57, 77, 99, 88, 86, 81, 101, 70, 99, 119, 97, 69, 57, 105, 90, 51, 70, 80, 89, 107, 70, 72, 84, 48, 111, 122, 101, 70, 70, 53, 84, 122, 70, 75, 97, 48, 104, 90, 82, 48, 78, 75, 98, 122, 104, 106, 81, 48, 100, 109, 85, 71, 78, 52, 99, 109, 57, 116, 99, 108, 89, 52, 78, 50, 70, 112, 85, 50, 100, 112, 77, 109, 86, 104, 84, 71, 100, 49, 99, 122, 100, 76, 98, 70, 112, 120, 84, 70, 90, 82, 99, 122, 108, 104, 81, 48, 86, 86, 87, 87, 53, 69, 86, 48, 104, 78, 83, 71, 70, 80, 90, 50, 112, 110, 82, 48, 49, 113, 78, 50, 120, 117, 78, 87, 108, 119, 89, 107, 120, 72, 98, 68, 100, 81, 78, 106, 90, 105, 99, 109, 112, 69, 86, 85, 86, 106, 101, 110, 78, 73, 83, 110, 112, 114, 98, 48, 104, 109, 84, 88, 70, 105, 78, 88, 104, 106, 85, 70, 82, 52, 85, 87, 57, 48, 99, 86, 111, 50, 81, 86, 66, 83, 97, 48, 70, 74, 86, 105, 116, 66, 85, 48, 82, 53, 77, 109, 116, 121, 85, 86, 112, 84, 77, 84, 85, 114, 100, 88, 86, 118, 100, 68, 86, 76, 85, 50, 53, 88, 98, 85, 120, 115, 100, 122, 86, 112, 85, 49, 86, 80, 81, 106, 104, 79, 89, 50, 112, 83, 82, 51, 112, 66, 84, 110, 78, 97, 90, 110, 78, 112, 99, 84, 65, 114, 82, 107, 49, 79, 90, 68, 77, 50, 81, 85, 53, 121, 87, 87, 70, 106, 87, 70, 108, 85, 100, 48, 73, 52, 78, 107, 69, 121, 78, 110, 74, 78, 87, 106, 108, 112, 77, 110, 111, 49, 84, 107, 49, 51, 83, 88, 112, 111, 99, 70, 66, 82, 87, 110, 86, 72, 83, 69, 116, 97, 86, 48, 120, 113, 81, 85, 70, 97, 86, 70, 78, 108, 97, 107, 53, 82, 84, 107, 116, 78, 76, 122, 78, 89, 86, 50, 112, 48, 83, 72, 74, 105, 77, 69, 81, 118, 101, 109, 52, 120, 99, 50, 70, 114, 85, 87, 86, 106, 77, 69, 104, 51, 81, 85, 56, 50, 97, 50, 90, 83, 84, 51, 82, 87, 77, 50, 78, 86, 84, 50, 100, 113, 78, 84, 73, 121, 84, 72, 104, 52, 86, 51, 100, 114, 86, 51, 86, 109, 85, 110, 104, 51, 85, 72, 70, 80, 77, 67, 116, 72, 97, 83, 57, 115, 90, 122, 66, 86, 86, 48, 53, 87, 100, 67, 57, 82, 78, 110, 70, 67, 82, 86, 112, 119, 98, 84, 70, 49, 75, 49, 112, 69, 83, 86, 66, 90, 78, 50, 90, 79, 90, 70, 74, 90, 100, 87, 53, 120, 101, 110, 112, 104, 83, 70, 100, 52, 75, 50, 108, 107, 84, 108, 112, 114, 86, 49, 108, 111, 97, 110, 86, 87, 75, 48, 74, 51, 86, 69, 57, 111, 85, 69, 78, 88, 101, 87, 70, 52, 85, 121, 57, 116, 82, 51, 66, 114, 90, 109, 70, 72, 82, 70, 104, 88, 99, 122, 107, 122, 99, 71, 52, 52, 78, 87, 112, 89, 85, 50, 104, 115, 97, 88, 85, 48, 86, 51, 112, 115, 99, 50, 74, 51, 101, 87, 57, 118, 87, 84, 74, 71, 99, 107, 70, 71, 86, 71, 53, 69, 97, 107, 86, 74, 78, 88, 70, 106, 83, 108, 69, 49, 83, 108, 90, 76, 85, 71, 57, 104, 87, 70, 70, 105, 90, 48, 53, 114, 99, 68, 89, 121, 99, 107, 116, 53, 98, 109, 120, 120, 97, 87, 49, 121, 82, 85, 49, 113, 84, 85, 53, 49, 89, 88, 104, 81, 86, 49, 108, 66, 86, 48, 112, 84, 89, 88, 82, 120, 97, 48, 89, 51, 78, 107, 78, 48, 90, 68, 81, 48, 89, 48, 74, 122, 89, 87, 81, 49, 77, 85, 108, 49, 87, 109, 49, 110, 77, 85, 74, 82, 81, 109, 112, 114, 100, 109, 49, 69, 100, 107, 103, 122, 97, 50, 53, 121, 87, 106, 82, 86, 81, 86, 100, 84, 89, 87, 86, 120, 90, 107, 53, 52, 82, 86, 107, 119, 77, 51, 70, 117, 98, 85, 112, 51, 82, 107, 48, 50, 100, 69, 53, 66, 99, 51, 86, 119, 100, 49, 82, 73, 89, 122, 103, 52, 85, 69, 57, 122, 89, 109, 82, 113, 87, 70, 65, 52, 85, 68, 107, 122, 82, 48, 74, 97, 78, 88, 70, 90, 90, 85, 53, 79, 83, 85, 73, 114, 83, 68, 104, 97, 85, 110, 112, 119, 82, 49, 86, 80, 85, 70, 90, 85, 89, 122, 78, 117, 82, 68, 90, 113, 82, 70, 78, 107, 90, 49, 112, 122, 78, 49, 74, 49, 90, 48, 116, 114, 98, 70, 82, 70, 85, 48, 86, 78, 75, 50, 100, 76, 81, 88, 82, 90, 82, 88, 82, 122, 77, 110, 99, 122, 100, 88, 112, 66, 98, 87, 49, 122, 89, 88, 112, 108, 77, 68, 86, 122, 89, 48, 100, 54, 82, 48, 120, 118, 85, 49, 104, 106, 99, 107, 70, 53, 84, 71, 112, 67, 98, 87, 90, 108, 78, 110, 74, 78, 81, 51, 65, 50, 97, 86, 66, 120, 100, 72, 111, 53, 77, 86, 100, 109, 81, 110, 86, 54, 89, 109, 69, 49, 99, 107, 82, 104, 83, 70, 100, 51, 77, 49, 70, 79, 97, 48, 112, 97, 82, 110, 104, 107, 90, 50, 49, 114, 89, 107, 70, 106, 86, 122, 90, 110, 77, 49, 70, 73, 85, 72, 86, 120, 99, 122, 77, 51, 90, 84, 86, 89, 97, 109, 78, 88, 83, 70, 85, 121, 99, 86, 70, 118, 101, 68, 78, 82, 85, 106, 78, 88, 77, 85, 81, 118, 87, 70, 82, 67, 78, 86, 100, 53, 82, 85, 82, 88, 97, 108, 104, 54, 100, 68, 90, 106, 90, 69, 85, 120, 85, 108, 86, 68, 78, 87, 108, 72, 78, 106, 78, 67, 77, 109, 82, 105, 78, 110, 74, 79, 83, 109, 53, 116, 81, 49, 66, 90, 84, 69, 70, 73, 98, 83, 116, 114, 82, 51, 104, 78, 78, 51, 104, 77, 84, 88, 70, 51, 82, 69, 69, 52, 77, 109, 116, 85, 98, 68, 82, 97, 97, 51, 82, 81, 85, 107, 53, 78, 86, 67, 57, 106, 97, 48, 82, 71, 84, 72, 112, 82, 84, 122, 74, 73, 89, 51, 90, 69, 98, 71, 112, 107, 84, 86, 107, 114, 89, 106, 100, 112, 90, 51, 100, 73, 84, 87, 77, 50, 84, 109, 78, 118, 81, 110, 81, 52, 84, 110, 86, 77, 99, 108, 70, 82, 78, 48, 100, 115, 89, 85, 89, 50, 82, 88, 74, 104, 86, 51, 86, 83, 97, 72, 74, 71, 98, 70, 86, 119, 99, 71, 53, 49, 77, 85, 73, 121, 78, 49, 82, 105, 76, 51, 74, 86, 101, 70, 100, 119, 90, 107, 56, 52, 83, 110, 82, 111, 85, 71, 49, 110, 85, 110, 104, 66, 87, 70, 107, 120, 97, 71, 108, 97, 81, 110, 103, 51, 99, 70, 90, 83, 75, 51, 103, 121, 78, 86, 104, 119, 100, 122, 70, 113, 77, 122, 104, 113, 85, 68, 86, 72, 85, 87, 74, 108, 77, 85, 112, 120, 100, 107, 70, 97, 97, 109, 116, 68, 82, 109, 112, 122, 100, 85, 120, 73, 81, 84, 65, 51, 81, 108, 82, 70, 77, 71, 99, 52, 78, 108, 66, 78, 85, 88, 86, 80, 76, 48, 49, 118, 97, 51, 74, 85, 90, 109, 103, 122, 97, 87, 74, 51, 81, 122, 86, 97, 98, 107, 82, 85, 86, 69, 69, 114, 101, 71, 57, 122, 90, 110, 69, 119, 89, 84, 108, 81, 98, 107, 112, 51, 84, 71, 100, 72, 77, 69, 57, 66, 77, 88, 90, 71, 79, 72, 112, 84, 84, 51, 104, 118, 78, 88, 90, 113, 78, 84, 100, 77, 81, 108, 66, 48, 86, 68, 65, 50, 77, 86, 66, 73, 84, 109, 116, 52, 86, 72, 78, 104, 83, 110, 66, 122, 86, 48, 53, 74, 78, 87, 90, 87, 87, 70, 78, 51, 98, 51, 107, 114, 85, 68, 66, 88, 100, 71, 100, 105, 86, 87, 108, 81, 77, 105, 116, 76, 100, 50, 82, 110, 79, 83, 57, 81, 90, 88, 66, 72, 81, 84, 82, 85, 83, 122, 66, 104, 99, 84, 108, 111, 86, 109, 100, 70, 90, 106, 78, 72, 99, 68, 86, 120, 97, 88, 86, 79, 97, 51, 85, 49, 101, 109, 57, 77, 90, 70, 108, 111, 83, 70, 112, 66, 87, 107, 53, 114, 99, 71, 77, 118, 101, 110, 82, 113, 87, 109, 57, 79, 78, 69, 73, 49, 85, 68, 74, 81, 78, 70, 100, 114, 83, 106, 86, 110, 82, 71, 81, 50, 99, 51, 108, 114, 83, 109, 74, 121, 78, 108, 90, 71, 78, 71, 108, 88, 85, 51, 108, 121, 82, 48, 86, 77, 100, 110, 73, 48, 85, 109, 108, 78, 101, 85, 103, 121, 98, 69, 69, 49, 82, 48, 112, 106, 76, 48, 74, 115, 79, 72, 90, 120, 98, 108, 100, 51, 97, 108, 74, 112, 87, 106, 66, 107, 82, 108, 104, 85, 87, 69, 78, 49, 99, 85, 86, 105, 82, 49, 107, 50, 78, 106, 66, 85, 99, 51, 66, 73, 98, 122, 73, 49, 86, 122, 74, 106, 99, 50, 70, 115, 86, 72, 90, 121, 101, 71, 112, 77, 86, 48, 100, 80, 77, 71, 82, 88, 97, 71, 104, 104, 86, 88, 66, 89, 98, 110, 82, 84, 81, 107, 111, 49, 89, 108, 70, 119, 85, 109, 70, 88, 85, 85, 116, 90, 90, 86, 82, 104, 84, 87, 90, 70, 87, 85, 108, 71, 83, 70, 103, 120, 86, 122, 82, 66, 97, 84, 103, 50, 81, 85, 108, 88, 77, 109, 49, 66, 101, 88, 69, 49, 81, 86, 74, 70, 87, 71, 111, 49, 99, 71, 120, 120, 98, 51, 70, 90, 86, 85, 90, 69, 101, 86, 100, 78, 83, 87, 90, 87, 82, 70, 104, 84, 87, 68, 65, 120, 100, 48, 69, 114, 86, 68, 66, 78, 100, 108, 86, 119, 99, 109, 74, 72, 85, 84, 86, 120, 82, 50, 111, 52, 98, 109, 108, 70, 83, 68, 74, 66, 85, 85, 120, 90, 84, 72, 74, 112, 98, 50, 116, 85, 83, 67, 116, 54, 100, 122, 82, 76, 89, 107, 108, 77, 84, 107, 49, 89, 78, 88, 100, 53, 77, 49, 112, 49, 81, 84, 73, 51, 83, 69, 78, 79, 89, 88, 69, 121, 81, 87, 57, 54, 97, 50, 53, 108, 86, 50, 57, 115, 83, 69, 49, 119, 97, 72, 104, 90, 82, 88, 108, 117, 78, 51, 100, 75, 79, 69, 119, 114, 100, 85, 70, 87, 86, 85, 49, 110, 84, 50, 69, 51, 100, 108, 108, 48, 99, 84, 78, 67, 86, 85, 100, 109, 97, 84, 66, 54, 85, 67, 115, 118, 82, 88, 65, 118, 83, 50, 100, 78, 89, 107, 82, 113, 97, 106, 65, 118, 87, 107, 69, 48, 81, 109, 108, 54, 87, 85, 78, 88, 90, 48, 57, 112, 87, 70, 100, 50, 97, 83, 57, 70, 77, 121, 115, 53, 89, 109, 120, 112, 89, 88, 99, 120, 78, 71, 90, 104, 79, 70, 108, 120, 81, 108, 108, 108, 90, 109, 108, 104, 84, 107, 70, 53, 97, 107, 103, 50, 78, 48, 86, 66, 100, 86, 70, 70, 81, 48, 108, 114, 90, 108, 65, 53, 84, 50, 120, 119, 99, 51, 103, 49, 99, 122, 108, 71, 78, 87, 108, 71, 86, 50, 53, 74, 83, 51, 82, 97, 90, 108, 100, 121, 99, 86, 70, 66, 83, 88, 82, 75, 82, 50, 53, 121, 86, 68, 74, 70, 99, 50, 112, 67, 82, 87, 78, 106, 79, 69, 108, 49, 81, 84, 90, 86, 84, 70, 108, 70, 77, 85, 120, 88, 84, 84, 90, 83, 77, 50, 108, 52, 99, 107, 100, 110, 77, 71, 90, 120, 75, 51, 85, 114, 84, 122, 70, 110, 82, 71, 99, 51, 81, 110, 86, 105, 83, 108, 107, 50, 84, 69, 49, 78, 86, 87, 103, 50, 77, 108, 66, 76, 87, 69, 53, 113, 78, 105, 57, 75, 85, 88, 111, 119, 86, 109, 57, 86, 77, 69, 49, 71, 101, 109, 82, 76, 89, 85, 119, 51, 77, 87, 103, 48, 87, 84, 77, 120, 89, 106, 104, 113, 78, 107, 82, 51, 81, 85, 53, 87, 86, 85, 70, 66, 82, 69, 119, 52, 101, 85, 120, 120, 76, 51, 74, 70, 81, 85, 56, 48, 79, 85, 104, 82, 81, 49, 100, 80, 84, 83, 116, 115, 82, 107, 57, 90, 82, 48, 52, 114, 98, 109, 90, 52, 84, 49, 108, 53, 97, 88, 107, 114, 100, 72, 104, 122, 89, 84, 70, 76, 97, 108, 66, 118, 97, 106, 90, 90, 81, 85, 100, 106, 83, 85, 86, 97, 87, 68, 66, 72, 82, 109, 78, 69, 83, 51, 85, 121, 90, 48, 99, 114, 87, 70, 85, 114, 85, 50, 70, 80, 86, 85, 86, 88, 85, 68, 66, 119, 81, 51, 74, 75, 98, 88, 104, 122, 97, 70, 112, 66, 99, 86, 74, 97, 101, 72, 108, 90, 98, 50, 52, 121, 84, 87, 86, 66, 86, 110, 90, 85, 81, 110, 90, 118, 89, 48, 53, 72, 84, 85, 119, 118, 81, 51, 100, 113, 85, 48, 120, 82, 77, 88, 90, 90, 77, 107, 120, 118, 82, 49, 108, 117, 97, 88, 78, 70, 86, 50, 78, 52, 83, 72, 86, 50, 89, 106, 66, 71, 77, 109, 100, 116, 87, 70, 112, 104, 98, 86, 70, 72, 78, 69, 111, 49, 79, 68, 90, 73, 79, 85, 116, 54, 86, 72, 78, 71, 99, 10